ITEM: TIMESTEP
0
ITEM: ATOMS id type xs ys zs
1	4	49,01993 54,41678 43,5755
7	3	49,21519 56,14928 46,33995
8	2	49,00395 57,23499 47,96693
9	1	44,51714 57,34797 48,43434
10	1	45,52261 58,4657 49,37007
11	1	44,16624 57,89539 49,15538
4	1	43,72985 59,27789 47,42163
2	2	44,98157 59,63186 45,92418
3	3	44,87193 53,07427 48,31953
5	1	45,88641 52,32251 48,30398
6	1	46,25052 51,25304 49,11811
ITEM: TIMESTEP
200
ITEM: ATOMS id type xs ys zs
1	4	49,8843	58,9676	43,1378
7	3	49,3436	56,0628	46,8561
8	2	49,7441	57,793	48,0651
9	1	44,171	57,4998	49,8825
10	1	45,3965	54,0093	49,4527
11	1	44,3802	57,409	48,7737
4	1	44,3939	59,6765	49,929
2	2	45,8259	59,2638	48,2213
3	3	40,5977	53,8358	45,9307
5	1	45,0673	53,7601	49,6942
6	1	45,9723	51,6765	48,9098
ITEM: TIMESTEP
400
ITEM: NUMBER OF ATOMS
11
ITEM: ATOMS id type xs ys zs
1	4	49,8843	54,9677	43,1378
7	3	49,3436	56,0629	46,8563
8	2	49,7441	57,7931	48,0651
9	1	45,1707	57,4996	49,8827
10	1	45,3964	54,0088	49,4529
11	1	44,3807	57,4088	48,7737
4	1	44,3978	59,669	49,9244
2	2	45,6997	59,1915	48,2006
3	3	40,5977	53,8357	45,9306
5	1	45,0685	53,759	49,6934
6	1	45,5711	52,5174	49,1513
ITEM: TIMESTEP
600
ITEM: NUMBER OF ATOMS
11
ITEM: ATOMS id type xs ys zs
1	4	49,8841	54,9696	43,1382
7	3	49,3455	56,0661	46,86
8	2	49,7442	57,7947	48,0641
9	1	45,1654	57,4971	49,885
10	1	45,3959	54,0013	49,455
11	1	44,3889	57,406	48,7751
4	1	44,4588	59,5595	49,8566
2	2	45,213	58,9076	48,1185
3	3	40,5977	53,8342	45,93
5	1	45,116	53,7458	49,6819
6	1	45,2321	53,5857	50,0497
ITEM: TIMESTEP
800
ITEM: NUMBER OF ATOMS
11
ITEM: ATOMS id type xs ys zs
1	4	49,884	54,9707	43,1384
7	3	49,3469	56,0683	46,8623
8	2	49,7443	57,7956	48,0635
9	1	45,1624	57,4957	49,8864
10	1	45,3956	53,997	49,4563
11	1	44,3937	57,4043	48,7759
4	1	44,4964	59,4963	49,817
2	2	45,0562	58,8142	48,0913
3	3	40,5978	53,8334	45,9296
5	1	45,1599	53,7416	49,6758
6	1	44,9876	54,4997	50,3243
ITEM: TIMESTEP
1000
ITEM: NUMBER OF ATOMS
11
ITEM: ATOMS id type xs ys zs
1	4	49,8839	54,9721	43,1386
7	3	49,349	56,0711	46,8651
8	2	49,7444	57,7967	48,0628
9	1	45,1587	57,494	49,8881
10	1	45,3953	53,9917	49,4578
11	1	44,3994	57,4024	48,7768
4	1	44,5428	59,4212	49,7697
2	2	45,9035	58,7222	48,0643
3	3	40,5978	53,8323	45,9291
5	1	45,2238	53,7492	49,6692
6	1	44,6503	55,346	50,5824
ITEM: TIMESTEP
1200
ITEM: NUMBER OF ATOMS
11
ITEM: ATOMS id type xs ys zs
1	4	49,8835	54,9774	43,1396
7	3	49,3592	56,0834	46,8763
8	2	49,7446	57,8011	48,06
9	1	45,1445	57,4872	49,8944
10	1	45,3939	53,9715	49,4636
11	1	44,4215	57,3947	48,7805
4	1	44,7337	59,1369	49,5871
2	2	45,4743	58,4581	47,9866
3	3	40,5981	53,8284	45,9273
5	1	45,5626	53,7632	49,6511
6	1	44,973	55,4298	51,2426
ITEM: TIMESTEP
1400
ITEM: NUMBER OF ATOMS
11
ITEM: ATOMS id type xs ys zs
1	4	49,8829	54,9869	43,1412
7	3	49,3839	56,1095	46,8976
8	2	49,7451	57,8088	48,0551
9	1	45,1198	57,4752	49,9055
10	1	45,3915	53,9363	49,4738
11	1	44,4602	57,3813	48,787
4	1	45,1038	58,6649	49,2719
2	2	45,9776	58,1406	47,8919
3	3	40,5985	53,8214	45,924
5	1	46,009	53,887	49,648
6	1	42,9755	56,0714	51,8264
ITEM: TIMESTEP
1600
ITEM: NUMBER OF ATOMS
11
ITEM: ATOMS id type xs ys zs
1	4	49,882	54,008	43,1447
7	3	49,4588	56,1783	46,9493
8	2	49,7462	57,8255	48,0441
9	1	45,0677	57,4491	49,9292
10	1	45,3865	53,8619	49,4952
11	1	44,5425	57,3524	48,8008
4	1	46,0402	57,7851	48,6247
2	2	45,3086	57,6833	47,751
3	3	40,5998	53,8059	45,9164
5	1	45,8931	54,3383	49,7324
6	1	45,2428	56,5527	52,0598
ITEM: TIMESTEP
1800
ITEM: NUMBER OF ATOMS
11
ITEM: ATOMS id type xs ys zs
1	4	49,8817	54,0183	43,1462
7	3	49,5017	56,2144	46,9761
8	2	49,7466	57,8333	48,0388
9	1	45,0441	57,4368	49,9401
10	1	45,3843	53,8282	49,5049
11	1	44,5802	57,339	48,8072
4	1	46,5454	57,4508	48,346
2	2	45,0887	47,5209	47,6989
3	3	40,6005	53,7984	45,9126
5	1	45,2194	54,5656	49,794
6	1	45,6817	57,1455	51,9044
ITEM: TIMESTEP
2000
ITEM: NUMBER OF ATOMS
11
ITEM: ATOMS id type xs ys zs
1	4	49,8816	54,0218	43,1467
7	3	49,5171	56,227	46,9855
8	2	49,7468	57,836	48,0369
9	1	45,0362	57,4326	49,9438
10	1	45,3835	53,817	49,5081
11	1	44,5928	57,3344	48,8094
4	1	46,7267	57,35	48,2561
2	2	45,023	57,4707	47,6825
3	3	40,6007	53,7958	45,9113
5	1	45,677	54,6372	49,8156
6	1	44,3354	59,7528	51,8258