ITEM: TIMESTEP
300
ITEM: NUMBER OF ATOMS
11
ITEM: BOX BOUNDS pp pp pp
3.6840193999999997e+01 6.4211560000000006e+01
4.1013691000000001e+01 6.8385058000000001e+01
2.9768094999999999e+01 5.7139462000000002e+01
ITEM: ATOMS id type xs ys zs
1 4 0.298814 0.490437 0.431494
7 3 0.296171 0.443047 0.460457
8 2 0.297476 0.388521 0.480255
9 1 0.24991 0.374074 0.499651
10 1 0.293793 0.337526 0.495267
11 1 0.346663 0.373076 0.488221
4 1 0.278572 0.56845 0.477861
2 2 0.267057 0.572107 0.475927
3 3 0.306023 0.537799 0.459032
5 1 0.363688 0.649372 0.499252
6 1 0.510725 0.667501 0.51152
